    1039
 i =    39001, time =    19500.500, E =     -6310.9158029676
  C        20.0572117265        8.2359675265       25.1052395682
  C        20.0781591553        6.6958380367       24.9140917808
  C        17.5627003658        6.7681060670       24.7908683820
  C        16.2663938605        6.0715331733       24.5625600381
  C        15.0561633049        3.9350975393       24.0251655065
  C        16.3463661675        4.6633639811       24.3621984506
  C        14.9794548249        2.4415745430       24.0500577268
  C        13.8819481685        1.8823937385       23.2106403101
  C        11.3456465767        1.7429246144       21.6886150217
  C        13.0758479520        2.8621337817       22.4991476766
  C         9.0161107424        6.1631040752       21.8585593462
  C        10.3242363453        6.9405868260       22.0304973586
  C        13.9983968680        9.0175009943       23.3465513872
  C        15.2407424804        8.2653642530       23.5654020230
  C        14.9363484384       16.7655414531       23.9801622729
  C        13.6733837695       17.5494700727       23.7807104679
  C        11.2014253267       14.6170370981       23.9375572560
  C        12.5222412345       15.4384700259       24.0588221042
  C         9.8549229840       16.8589841418       23.9164580726
  C         8.6871862954       17.5921534908       23.3611717902
  C         8.8482776296       19.0613502621       23.1079053973
  C        10.1354571895       -1.4532151556       23.1232246150
  C        11.3821666128       19.2853411666       23.7746173092
  C        12.6430380873       -1.6490567784       22.9793807441
  C        12.7192614647       -0.2593224738       22.3785022026
  C        13.9950242335        0.4381483834       22.6901368787
  C        16.3082430396       18.7142162800       23.1836601721
  C        15.0892595208       -1.8231491676       22.8354652806
  C        19.8646324784       16.5518508104       23.2457501759
  C        19.9480389115       15.1886869361       23.7537431058
  C         0.4822149924       15.1542457787       23.1000895489
  C        21.4016861630       14.7158560924       24.2345948655
  C         3.9566327527       12.8346558980       22.2721767832
  C         5.3584765982       12.3456800779       22.7318962023
  C         2.9686987596       16.5111052893       22.6224774737
  C         1.7303953232       17.2538818601       22.7909613558
  C         0.4518222054       16.6398311837       22.6387384545
  C        21.0870515809       17.3880086685       22.8670356791
  C        19.9884942329       -1.8450334292       23.7656560787
  C        21.1885058362       18.7584787893       23.4199977310
  C         0.5192990589       -1.7183843926       23.0730065131
  C         1.7577756841       18.7336057106       22.7612649509
  C         6.8837669155       17.5364982774       21.6683224617
  C         5.1006005171       16.4416773533       21.6206414357
  C        19.6707026284        4.0183280296       23.6612313341
  C        19.8284009422        2.4695338290       23.8913287705
  C         1.7853670789        4.6405035052       24.0160077015
  C         0.4366586590        3.9857899858       24.0666873352
  C        21.0810334174        6.2630791882       23.9041645673
  C        11.1660850011       17.6032144666       24.3073911993
  C        11.6280429956        6.1767707758       22.1365503739
  C        14.0301469900        6.0708993054       23.1076791773
  C        13.6946857857        4.6966106266       23.9367038868
  C        17.4252515508        3.8562258777       25.0135959635
  C        18.8274009579        4.5726565369       24.8572072355
  C        17.4707609132        8.2339665298       25.1081258758
  C        16.4811819250        8.9500574576       24.0728204681
  C        21.2687113529       13.1306414026       24.6262275261
  C         3.9814098177       14.2913121044       21.9059885128
  C         2.6844252359       15.1144081594       22.0279405137
  C         4.1233376609       18.7313289941       21.8493716902
  C         3.1087640458       -1.7918596488       22.9842823683
  C        10.3013483573       -0.3970919684       22.0157963908
  C         8.9733859233        0.3904193495       21.6593405137
  C        11.3377800777        4.7726635173       22.8031142790
  C        12.3703353638       16.7995930353       23.4925222027
  C        21.1090654228        4.7147582595       23.4591551632
  C        20.0213756249       12.4972145478       24.0977246626
  C        20.0689905494       11.0151482131       24.5379942732
  C        18.7942431922       10.2964813492       24.7799233989
  C        21.2516934906       10.2920184644       24.4224219112
  C        17.5100380770       11.0321021661       24.6359772248
  C        18.8068236086        8.9870651795       25.0552774080
  C        18.7300655567       13.1850126495       24.4797028237
  C        21.2893326779        8.9148988855       24.7331831576
  C         0.6370331991       10.9970394813       24.1770026884
  C        16.3242213455       10.4077740699       24.3428760162
  C        17.5017832734       12.4955871245       24.6352075349
  C        18.7244594885       14.5903195970       24.3520249583
  C        18.7256324931        6.1184515066       24.7562875745
  C         0.6411772153        8.2361842534       24.4793312505
  C         1.8377277206       10.3117069489       23.9984038952
  C        15.0610887951       11.0494559243       24.2025163639
  C        16.2429799776       13.2010276908       24.4607580417
  C        17.5332274269       15.2710993054       24.1657164398
  C        18.6229393626       17.3321250477       23.4341919354
  C         1.8592477606        8.9082712567       24.1659336557
  C         3.0204160158       10.9623250536       23.5583111720
  C        12.6738690440       11.0856381983       23.5777668645
  C         5.4140248768       10.9523405954       23.0386641307
  C        10.2808984908       11.0773282931       22.8843229181
  C         7.8193364547       11.0987707398       22.8360029067
  C        13.8972977715       10.4032270460       23.7918659686
  C         4.1986753641       10.2890823753       23.3943406762
  C        11.5125965149       10.3679374430       23.0487037472
  C         6.6453420084       10.3520311693       22.9016833549
  C         9.0795926149       10.4072935006       22.7788826720
  C        15.0117120639       12.4910914275       24.3195879383
  C        16.2599627887       14.5778359701       24.2142301642
  C        18.7229896693       18.6996467728       23.5034281161
  C        18.7041530708        1.7016244478       24.1341037946
  C         3.0688165278        8.1344448190       23.7734434697
  C         1.7448420048        6.1056194382       23.9381713747
  C        19.9857371900       -0.3661448579       23.8746601402
  C         2.9143179233       12.3581540176       23.1959547732
  C         1.6106793493       14.4478961791       22.8626690535
  C        12.5791330331       12.4961788216       23.8661620142
  C        10.2376731592       12.5093610489       23.0502458020
  C         7.8182561545       12.4874810522       22.8202960591
  C         4.2558967026        8.8659609845       23.5346066268
  C         6.6869001959        8.9127632304       22.8671691800
  C         9.0658812122        8.9918356868       22.5863513241
  C        13.7682724915       13.2064960485       24.1492749129
  C        15.1180813248        6.7783793629       23.9204006036
  C        15.0359746852       15.2961587070       24.0535326975
  C        17.4402717070        2.3333950577       24.4664664217
  C        17.5107797369       -1.7722369585       23.5037546005
  C        18.7918489022        0.2983627567       23.9692199482
  C         3.0137358787        6.7139278676       23.6596636916
  C        21.1925574462        0.3582767090       23.8762240624
  C        11.3441212205       13.2072132912       23.5556575358
  C         6.5539807237       13.1419283876       22.5670585300
  C         8.9767354339       13.2114875783       22.9303491374
  C         5.4591008503        8.1903958737       23.1754404274
  C        10.2721146264        8.2866421152       22.5394990560
  C         7.8405686328        8.1934708557       22.5081650004
  C        13.8013932154       14.6522486725       24.0516349482
  C        16.3003122623        1.7082456616       24.0879753936
  C        17.5244430193       -0.4061633899       23.7197428729
  C         4.2080361788        6.0306265690       23.3408791395
  C         2.9446501797        3.8806701773       23.3975120273
  C         1.6945978678        1.8362930694       23.4852769157
  C         0.5478944288       -0.2823460894       23.5621482061
  C         6.4962356940       14.5555459055       22.3156112184
  C         8.8462515275       14.6701096109       23.0919577264
  C        12.7585239180        6.9045216470       22.8587731518
  C         5.3929455105        6.7320235185       23.0272483618
  C         7.8202184796        6.8032291167       22.3876239498
  C        16.2895558819        0.3388201614       23.6127613284
  C         4.1344968917        4.6244389061       23.0484890354
  C         2.8899391204        2.5303481454       23.1529340704
  C         1.7446123457        0.3932032697       23.3248087866
  C         5.1975942611       15.0443003714       21.8324382534
  C         4.1962678145       17.2194192615       22.1664410604
  C         9.9538024800       15.3476273659       23.5163108045
  C         7.6568295556       15.3888757519       22.6063287869
  C         6.5653750359        6.0763085603       22.5845649259
  C        12.6618362307        4.0139595965       23.0636254230
  C        13.7440811411       18.8295388809       23.0759267161
  C        15.1601559573       -0.3728428259       23.1824060272
  C         5.3223106350        4.0164172970       22.4383027028
  C         4.0712424254        1.9024263726       22.5184333512
  C         2.9027385217       -0.3060437019       22.8057587268
  C         7.7817226863       16.8192319038       22.4632659904
  C         6.5205822797        4.7232035622       22.2203615449
  C         9.0178229789        4.7003292315       22.1211894950
  C         5.2533239495        2.6571873868       22.3423010099
  C         4.0891347844        0.4282919031       22.4243142109
  C         5.3661664712       -1.7048854480       21.9113090841
  C        10.2467515591        3.9764642096       22.1092038878
  C         7.7735128533        4.0282552813       21.9982215280
  C         6.4819108523        1.9198698084       22.0533452100
  C         5.3172512837       -0.2694102518       22.0456876394
  C         6.6007689631       18.9420069422       21.9469754556
  C        10.1289167909        2.5842081381       21.8963826289
  C         7.7011785341        2.6105465968       21.9186698722
  C        11.4619792114        0.4856608338       22.1373053587
  C         6.4875048859        0.4737183805       22.0064183580
  C         7.7289800801       -1.5631742747       22.3766236589
  C         8.8661442925        1.8954813056       21.8322182769
  C         7.6643068685       -0.2281129699       22.1433260018
  C        16.2271629635       17.3291990470       23.6759022094
  C        17.4294770422       16.6529082779       23.6851779253
  C        11.4895005470        8.9784332652       22.9086318514
  C        12.7033011711        8.2428991693       23.2366014544
  C        21.0933098223        1.8122180427       23.9167671511
  C         0.6166637134        6.8500095186       24.1950150413
  C         0.4981135229        2.5192315822       23.7948870976
  C         0.6127349745       12.4053154580       24.0374353609
  C         1.7191089600       13.1250583179       23.4467891567
  O        20.3674545641        7.1881500284       26.1747238053
  O        19.7579112048       15.3796841863       22.3234717618
  O        18.8987143488        4.3195704822       22.5222376121
  O        21.7701046382       15.3948766606       25.4314494329
  O        15.0490151807        6.5702705037       25.3626956398
  O        21.5413350546       17.1577668934       21.5228064368
  O        20.8881305904       -2.4844099028       24.8214611756
  O        14.9556196081        8.7920301603       22.2916041164
  O         1.1499463001        4.2383130576       25.2986581420
  O         3.5501377757       12.0298765097       21.0730594924
  O        16.0899684588        4.2142832988       22.9544954899
  O         2.4457296452       16.7190775000       23.9448718251
  O         1.0220148014       19.4071400477       21.7030146624
  O        11.7195989319       15.1094282442       25.1703982328
  O        14.2156153922       17.4314246357       25.1126515365
  O        15.8730508623       18.9429968089       21.7621513757
  O         9.6293829914        6.7755825820       20.7259120766
  O        13.8091076080        1.9123137644       24.7067851692
  O         6.1034387589       16.8838621831       20.7048774886
  O         8.6926055787       17.2729812882       24.7355501897
  O        11.5840796873       -1.2413870548       24.9672907768
  O        12.4511379763        2.4927487861       21.3210467850
  O        13.7455864799        0.0488676916       21.3568448695
  O         9.1916585661       -1.2380111237       24.1905748437
  O        21.2656102140       13.1655445317       26.0253586981
  O        16.9803255302        8.3314761029       26.4773654209
  O        20.5382905123        6.9269744488       22.7561545450
  O        17.4252571056        8.8331906980       22.8857515316
  O        19.6551778888        4.4756966206       26.0617725721
  O        17.1126270702        3.8261130269       26.3925819575
  O         2.1617921592       15.1939979160       20.6471220561
  O        14.5357001127        5.8732487696       21.7774269108
  O         4.6351203857       14.3726877493       20.6027010080
  O        13.1656293909        4.9478245108       25.2842057055
  O         3.4986906920       -2.2019103996       24.2815375633
  O        12.0050640167        5.9904585583       20.7600591948
  O         3.5750024050       18.9216464236       20.5160457107
  O        11.4225552973       17.7369655621       25.6520387966
  O        10.7397902112       -1.2823656280       20.9680277383
  O         8.7443917081        0.2340627814       20.2546140719
  O        12.0485278774       16.7839244639       22.0949684335
  O        10.7469455522        5.0712078751       24.1266296835
  O        21.3022472943        4.7134338863       22.1180223310
  O        20.0171906756       12.3592909342       22.6271935742
  H        21.5070316610       14.5764471561       26.0664969503
  H        15.9704917197        8.3686884848       26.5088322884
  H        20.6165033827        6.1864284222       22.0227242327
  H        17.1007873778        9.3996396419       22.1365735278
  H        19.9746898313        3.5105188936       26.2768293685
  H        17.6843253746        4.4676807875       26.9130587318
  H         2.9214356505       15.0731219461       20.0914975562
  H        15.3878636519        5.3558846620       21.8403868691
  H         4.3505029667       12.0995054124       20.4452023948
  H         4.4196309043       19.3937397251       24.4133211385
  H        12.9757660456        5.6745226620       20.8478960385
  H         2.6937551126       18.5226819580       20.5181249898
  H        11.4485205110       18.7960111165       25.8485604769
  H         9.9746299759       -1.5898941685       20.4372269157
  H         9.3315493590        0.8565156289       19.8428305390
  H        13.7643870305        5.5316608387       25.7642129437
  H        12.0934631592       17.7251704571       21.8048646754
  H        10.1356266046        4.3081641342       24.4454162090
  H        19.6467559648        4.5100300068       21.8299564447
  H        20.6746304000       12.9210174172       22.1806308143
  O         1.6730622043        5.7504960402       39.0094168511
  H         2.0378558669        5.5214396419       39.9081764712
  H         2.4708078173        5.9889587318       38.4253676103
  O         7.3646968261        8.7609345078       29.5772713898
  H         6.5202123908        9.2589774321       29.5319151402
  H         7.8078519823        9.2493868554       30.2692880896
  O        22.4563757522       11.8358808929       38.4688665928
  H         1.2679905617       11.5434713112       39.1729769045
  H        21.5710803736       11.8253367833       38.9543537542
  O        -3.4807162847       19.8111391121       40.4567709262
  H        18.6308944325       19.7438027087       39.5274933102
  H        -2.7673542198       19.5238682847       41.0513999734
  O         8.5995023213       18.1250623166       33.1174426963
  H         8.2534721999       18.9513981515       33.4954979578
  H         7.8415217989       17.4702877490       33.3316410603
  O         4.5837883415        2.3493820953       36.4392886252
  H         4.5395730214        2.3723121966       35.4012952423
  H         4.1904482981        3.2376785406       36.5678248092
  O         4.8662300511       20.2955800615       32.2695211441
  H         4.7734623223       19.5644725104       31.6398238894
  H         4.1312814723       20.1587295376       32.8858137006
  O         5.2731614056       23.0699226678       39.6400769293
  H         5.9172376586       22.9848244299       40.2769656538
  H         5.3678048919       23.9761207864       39.2610437300
  O        15.2885080437       20.6724079150       31.3439863812
  H        15.9036833388       21.5209678988       31.4132390293
  H        14.9559389455       20.6962383670       30.3704497003
  O        10.3422172194       16.8267817608       42.1710971558
  H        10.0715425991       16.8803138321       43.1258813126
  H        10.1541470046       17.7303869187       41.8387682717
  O         7.9408561374       11.8074414905       38.1842936486
  H         7.6003784839       11.0238988034       38.7301567606
  H         7.4820648016       11.7800555148       37.3146040920
  O         6.2274804540       11.6714153972       25.9803532125
  H         5.3889017248       11.7910373157       26.3952398990
  H         6.6353594955       10.8044723692       26.0263110573
  O        12.5984816024        9.4159177861       42.1183312172
  H        12.7624207588        9.4342173375       41.1926730382
  H        11.8490566434        8.8323629670       42.3299952803
  O         7.6790959874       13.7847151283       34.4014094351
  H         8.2269203225       14.5273915209       34.0758695084
  H         8.3107695207       13.1450217135       34.7632990341
  O        17.3773505355       22.5303749984       39.9262490280
  H        17.9633377567       21.8110896956       40.4824902599
  H        16.4577865067       22.3679051286       40.2013593409
  O        12.3084292521       20.3104547755       32.4057200143
  H        11.6213933385       20.7124973020       33.0335026262
  H        13.0616539405       20.2022137004       32.9880989037
  O         2.8480960457       11.4667690575       40.1903025168
  H         2.7534334414       12.1828352110       40.8410121250
  H         3.1586351159       10.6679262952       40.6806898811
  O        18.3266960365        5.6155415067       39.4132161354
  H        17.6072862309        5.2092614570       38.8407315338
  H        18.5202428848        4.9563792064       40.1205223215
  O        11.4737285412        7.5075715972       26.0137894589
  H        11.6404758242        7.2603337708       27.0124946040
  H        11.6693472229        6.6342756517       25.6025067656
  O        11.9638146422       17.8791539070       38.2368704812
  H        11.8804260257       18.8460358188       38.4842869996
  H        12.9092687978       17.5694976266       38.3782151842
  O         4.3449338058       14.1364919002       25.0493725030
  H         5.2306135075       13.7266309268       25.0182979315
  H         4.3993505997       14.7514464869       25.7986400403
  O        19.5882048675        1.0791565289       42.4806273752
  H        19.8528180077       21.9370073510       43.3172259286
  H        20.3905637843       22.4815058923       41.9860718175
  O         8.0586622852       12.0904504381       31.8984463154
  H         8.2024081738       11.4079410192       32.5638149443
  H         7.6732652323       12.8476297685       32.3965123418
  O        18.7531986729        9.3539784782       39.4524079607
  H        18.3400490444        8.7897900317       38.7685746222
  H        18.6504673095        8.9182072833       40.3340037593
  O         3.8575153999       15.5652652537       27.5847849041
  H         4.3995007423       15.4022095307       28.4379351389
  H         3.6576237385       16.5468317269       27.5939953761
  O         1.6699515810       17.2875106330       29.3564468184
  H         1.0862770797       16.8697311897       30.0494011661
  H         2.5299844712       17.4632388807       29.8278176727
  O        20.1009395029       18.5206799873       42.7124954108
  H        20.9362155193       18.1891120412       42.2446802464
  H        20.1588748212       18.4153185806       43.6476143569
  O         1.3092702917       20.4055673984       41.5225177107
  H         2.0803615534       20.9870904515       41.3517974047
  H         0.8745102889       20.0465803176       40.7163290795
  O        16.4116705292        4.9834587026       37.7004377459
  H        16.2891295150        4.4834117691       36.8338874536
  H        15.4940223187        5.2515475482       37.9933875996
  O         8.0743950459        3.8934735742       38.3178555734
  H         8.6752502960        4.3676256149       37.6953529005
  H         7.7598999146        3.0472766017       37.8295505520
  O        10.2660312805       12.4608402587       30.0721674681
  H         9.6613337931       12.2193592529       30.7757908657
  H        11.0305670125       12.9431594074       30.5467804223
  O         8.4985319055       19.1427948742       36.7903689912
  H         9.4452034970       19.0019852162       36.4231175266
  H         7.9962964958       19.3221828876       35.9827754011
  O        15.5518050057        2.8091771626       29.2296411698
  H        15.4012747810        2.2419458739       30.0409503091
  H        15.5328792615        2.1439441118       28.5088016852
  O        10.4103720003       15.5834451388       37.9181728459
  H        11.0125178161       16.3606107343       37.8652041504
  H        10.5502653170       15.3196552190       38.8702032387
  O         3.9813434466        6.1393038527       37.3261244485
  H         4.0402101997       27.1591636589       36.3443319590
  H         4.4618131683        5.4833231626       37.9133812198
  O        20.7546877866       10.6078870853       35.8245599149
  H        -0.5814974343        9.9667193401       35.3679992690
  H        21.0899080400       10.7676402314       36.7295407739
  O         8.7702294609       20.0765500990       29.6816680550
  H         9.1205951577       20.5131306009       30.4561640274
  H         8.5807222872       -0.3563607934       29.1230335515
  O        11.8233328205        3.8727338651       27.6709137031
  H        12.6253960466        4.2246432119       28.1003100579
  H        12.1150355071        3.8659054756       26.7167176909
  O        11.9154596129       10.5022592266       28.1102370721
  H        11.3988734382       11.1269045594       28.6737636719
  H        12.8038776628       10.9226459605       27.8542135830
  O        19.4665511767       19.1032366845       37.4007743025
  H        19.7414992983       18.2085067575       37.6239046892
  H        18.5251275246       18.9255350397       37.5118042953
  O        14.2636939863       22.2336319317       37.6309064555
  H        14.2745433401       21.8449776822       38.5382404355
  H        13.6965220816       21.5936355889       37.0965120468
  O        11.9959257938        1.6224454589       29.1723798054
  H        12.1012408275        2.2068396832       28.3530372251
  H        12.5623651261        0.7813493745       28.9683349074
  O         0.7675874132       13.5902711178       29.8304992951
  H         1.0873729258       13.6050274079       28.8974382468
  H         1.5621526461       13.8486567522       30.4266701492
  O        -3.3790544795        6.2335611594       35.3024377071
  H        -2.7665655648        6.3500637229       36.0104759091
  H        -2.8522248437        6.3242114385       34.4783069600
  O         8.0444555984        9.3776375210       26.2477331543
  H         8.0578674726        8.9826865136       27.1267666534
  H         8.8632620582        9.9114626031       26.1936144224
  O        13.6515152761        5.7953424491       37.9493860708
  H        13.4730086343        6.8039281951       38.0071752581
  H        13.0983736466        5.5417026735       37.1498277501
  O         9.3848064057        8.0036058800       41.9313828184
  H         9.8736642519        7.4978229301       41.2114322559
  H         9.1785481925        8.8862848923       41.6039779513
  O        16.0306989474        3.4985742856       35.3262170708
  H        15.0700413064        3.3048261743       34.9924733124
  H        16.4533824375        2.6139077474       35.5468839317
  O         2.3469621020       13.6278951561       42.1072371056
  H         1.4391258114       14.0577472727       42.1285084421
  H         2.7961076975       14.2993611098       41.5468230630
  O        16.0756798255       17.6914367897       28.3837173852
  H        15.3385288196       17.0938889046       28.2948188343
  H        16.3516180119       17.8606039869       29.2972689826
  O        11.8221181278        7.7951405677       32.3991716744
  H        12.1381551504        8.6462243652       32.6927555554
  H        12.5694284584        7.1732985286       32.2034828333
  O         4.8511654020       10.0505941156       33.7788463856
  H         4.2318170721       10.4545263427       34.4282668820
  H         4.8495406488       10.7334922359       33.0525970449
  O        14.1225040087       18.6787531259       41.7918400886
  H        13.4626715010       18.3240555518       42.4138911981
  H        14.9666532737       18.2625030648       42.0030896752
  O         2.1344851707        8.6006992323       43.2974111412
  H         2.5555775888        8.6985712018       42.4309233497
  H         1.2665301300        8.1966069807       42.9129142305
  O        14.8047213244       19.6239327869       33.8884023611
  H        15.1455967852       20.0197359778       33.0209371429
  H        15.5445486183       19.6976159143       34.5132896163
  O         2.1580278371       -0.6467347043       33.8869556319
  H         1.9403712895        0.3072875073       33.8563689184
  H         2.4850984575       -0.7963132150       34.7828642751
  O         1.0074546156       19.0306748874       38.9883663251
  H         0.3118442476       18.4168245957       38.9301358528
  H         0.9994904265       19.5425265479       38.1115332933
  O        18.9399040989        2.1409848326       37.5884212965
  H        18.9439758063        2.7308922152       36.7983880648
  H        18.3937289034        2.6485692613       38.2146142606
  O         2.1085418481        1.3652912874       30.3172604494
  H         1.7551432526       21.7349106288       30.1877660892
  H         3.0001782861        1.2249745745       30.6020540188
  O         5.0535204073       11.9468187783       31.2886487647
  H         4.6491007812       12.4909811377       32.0383854825
  H         5.9506296789       12.1937087148       31.1764111713
  O        12.9862053271       13.1541849282       41.6290407923
  H        12.2253361103       13.6395057064       41.2243276386
  H        12.6963997078       12.2900708759       41.9761139060
  O         6.5367119766       10.2168014766       35.9152424395
  H         5.7876461667       10.4718149883       36.4954896762
  H         6.1064828088       10.2526253669       35.0200459223
  O        13.5252522704        8.8747185784       38.8667698602
  H        14.0661341122        9.6426609122       38.5687954917
  H        12.7483719435        8.6863002848       38.2821217775
  O         4.3855378884        8.8308320534       38.1381896386
  H         4.2507093977        7.8424982316       37.8839785741
  H         3.5585845088        9.2643693103       37.8460642207
  O         1.5355041812        3.0917045706       37.7328237677
  H         1.4674146156        3.9188889984       38.2951754495
  H         0.6394104771        2.7525292089       37.9272419356
  O         0.9120545561       17.5689706211       26.6910441059
  H         1.2756384093       17.1820849647       27.5271427046
  H         0.6180990467       16.8501138460       26.0688157235
  O        12.3304326143        5.0435567230       35.2540695429
  H        12.6882988299        4.2291469651       34.7697108995
  H        12.4985485262        5.8112977471       34.7111421643
  O        -0.7422626367       15.8913251484       30.3080218722
  H        -0.3238978933       15.0598402083       30.1361345403
  H        -0.7771980851       15.9534303277       31.2921347683
  O        21.9192825966        8.4820921937       39.3500763345
  H        22.0928441988        7.7829956138       38.6401083158
  H        20.9849249411        8.4968199164       39.3217003758
  O        13.3522468448        2.6940229719       34.1968028018
  H        13.0518543549        1.9135270772       34.6910901165
  H        13.4567355553        2.4533736863       33.2409736893
  O         4.1169288628       17.8404391569       30.7972435032
  H         4.2557813043       16.9955273996       31.2500785281
  H         4.9490278067       18.0649091394       30.3490383148
  O        17.2135148334        1.7242175312       31.5094714354
  H        17.7900182227        2.0538489585       30.7643347658
  H        16.9137380506        2.6068796476       31.8797360334