    1039
 i =    39001, time =    19500.500, E =     -6310.9158029676
  C        -0.0000935223        0.0000317414        0.0000118684
  C        -0.0001425753        0.0001217629        0.0001097657
  C        -0.0000205870       -0.0000308967       -0.0000865863
  C        -0.0001767414       -0.0000267897        0.0001425068
  C         0.0001319039        0.0000592386       -0.0000062776
  C        -0.0000354824        0.0000481115        0.0002031556
  C         0.0000840692        0.0001937793        0.0001455956
  C        -0.0000184498        0.0002260174       -0.0000104763
  C        -0.0000278240       -0.0000548508        0.0002297985
  C        -0.0001251717       -0.0001268132       -0.0000708674
  C         0.0000921351        0.0001355994       -0.0000776939
  C        -0.0000513063       -0.0000880617       -0.0000791990
  C         0.0002103194       -0.0000302882       -0.0000501684
  C        -0.0000091162       -0.0000820916       -0.0000628369
  C         0.0000783246       -0.0000312156        0.0000234920
  C        -0.0002047962       -0.0000660117        0.0000091828
  C        -0.0000391867       -0.0000632044       -0.0000877588
  C        -0.0000687870        0.0001549813       -0.0000990268
  C        -0.0001115482        0.0001465078        0.0000756100
  C        -0.0000334124        0.0000976357       -0.0001071150
  C         0.0000276863        0.0000317377       -0.0000087768
  C        -0.0001066994       -0.0000321533       -0.0001587653
  C         0.0000842603        0.0000758549       -0.0000398325
  C        -0.0002735440        0.0000720761        0.0000090571
  C        -0.0000616118        0.0001708210       -0.0000686847
  C         0.0001385564       -0.0000799043       -0.0002196051
  C         0.0000338093        0.0001032351        0.0002173605
  C         0.0000798316        0.0000732842       -0.0001188286
  C         0.0000263736        0.0001055121       -0.0000670730
  C         0.0000144040       -0.0000761292        0.0001195974
  C        -0.0001085190       -0.0000370641       -0.0000462939
  C        -0.0000498607       -0.0000162647        0.0000997912
  C        -0.0001366284       -0.0001054015       -0.0000769961
  C         0.0001956332        0.0000504256       -0.0000065878
  C        -0.0000713443       -0.0001495249        0.0000079295
  C         0.0001594276        0.0000874076        0.0001518641
  C        -0.0000741643        0.0000475982        0.0001717373
  C        -0.0000838675       -0.0002186866       -0.0002726185
  C        -0.0001264024       -0.0000556187       -0.0001245533
  C        -0.0000043210       -0.0000678799       -0.0000514219
  C        -0.0000241657        0.0001031636       -0.0000243319
  C         0.0000106488       -0.0001290459       -0.0001152128
  C         0.0001112296       -0.0000074212       -0.0000966465
  C        -0.0000332327       -0.0000088406        0.0001508719
  C        -0.0000273258        0.0001603315       -0.0000808870
  C        -0.0000166353       -0.0000046359        0.0000383336
  C         0.0000216537       -0.0000391137        0.0000503889
  C         0.0000598041       -0.0000682228       -0.0001061532
  C         0.0002062259        0.0002180014       -0.0001125370
  C        -0.0002391542        0.0001145936        0.0000927247
  C         0.0000613141       -0.0001374903       -0.0000195675
  C        -0.0000019673        0.0000451437        0.0001054903
  C         0.0000725302        0.0000065121        0.0000275550
  C        -0.0000606894        0.0001041656       -0.0001703037
  C         0.0000944089        0.0000300392       -0.0000457441
  C        -0.0002548177       -0.0000366561       -0.0000593138
  C         0.0001476905       -0.0000950344       -0.0001249853
  C        -0.0001302915       -0.0000288539       -0.0001181900
  C        -0.0000535427       -0.0000293695        0.0000544591
  C         0.0000508203        0.0002706693        0.0001678039
  C        -0.0001678149        0.0000735952       -0.0002359127
  C         0.0001001808        0.0000301593        0.0001891891
  C         0.0001015069        0.0000154106       -0.0001278694
  C         0.0002008058       -0.0001445539       -0.0001021117
  C         0.0000422534        0.0000250873        0.0001788691
  C        -0.0000418972        0.0001124412        0.0000638079
  C         0.0001975546       -0.0001568543        0.0002339922
  C        -0.0001373895        0.0001422094       -0.0000649908
  C        -0.0001613190        0.0000526401       -0.0000472261
  C         0.0000280864       -0.0000665979       -0.0002482473
  C        -0.0001720272        0.0000749613        0.0003088335
  C         0.0000717775       -0.0000816512       -0.0000588080
  C        -0.0000792299       -0.0001909554       -0.0000569916
  C         0.0001269771        0.0001223950       -0.0001907742
  C         0.0000322559       -0.0002063890        0.0001989893
  C         0.0001523312        0.0000747324        0.0000462768
  C         0.0001362660       -0.0000327394        0.0001714451
  C         0.0000301667       -0.0000923163        0.0000002473
  C        -0.0003497050        0.0000095984        0.0000258118
  C        -0.0001040388       -0.0002766383        0.0001751971
  C        -0.0000162050       -0.0000572157        0.0001354590
  C         0.0000399231        0.0000919733        0.0000466363
  C         0.0001266928        0.0000043115        0.0001991728
  C        -0.0001178078        0.0000093729        0.0000217931
  C         0.0001361618       -0.0000339701       -0.0001342428
  C        -0.0000579641        0.0001090426        0.0000852305
  C         0.0001477805       -0.0000616831       -0.0000671653
  C        -0.0000015408       -0.0000353630       -0.0001124560
  C         0.0001034816       -0.0000654524        0.0001507898
  C        -0.0000693643        0.0000466421        0.0001553883
  C         0.0001182816       -0.0000348332       -0.0001259435
  C         0.0000125276       -0.0001542249        0.0000563037
  C        -0.0000905276        0.0000173507        0.0000611321
  C        -0.0000172186        0.0000786786        0.0001939721
  C        -0.0001686933       -0.0000504432       -0.0000422918
  C         0.0001876920        0.0001323604        0.0000590409
  C        -0.0000314083       -0.0000778321       -0.0000525144
  C        -0.0000357000       -0.0000814062        0.0000501472
  C         0.0000496958       -0.0000426253        0.0000818018
  C        -0.0002158484       -0.0000727611       -0.0000642180
  C         0.0001269437       -0.0001450443       -0.0000488750
  C         0.0000601971       -0.0000335397       -0.0001518937
  C        -0.0000595869       -0.0001718626       -0.0000662552
  C        -0.0000660569       -0.0000961487        0.0002393910
  C        -0.0000062177       -0.0000535718        0.0000474850
  C         0.0001290478       -0.0000164480       -0.0000914358
  C         0.0000121141       -0.0000716612       -0.0001151877
  C         0.0000837022       -0.0000186870       -0.0001145289
  C         0.0000278812       -0.0000459222       -0.0001093336
  C         0.0000867289        0.0001066726       -0.0000627982
  C        -0.0000100292       -0.0000755624        0.0001793627
  C        -0.0000483994        0.0001195928        0.0000881612
  C        -0.0001930479       -0.0002226053       -0.0000201107
  C        -0.0001042948       -0.0003094735       -0.0000844214
  C        -0.0000980609       -0.0001222733       -0.0000019231
  C         0.0000983888       -0.0000563318        0.0000353309
  C         0.0001777134       -0.0000584842        0.0000185249
  C         0.0003525442        0.0000953686        0.0001040115
  C         0.0001275254       -0.0000523578       -0.0000231545
  C        -0.0000650586       -0.0001299332       -0.0000330376
  C        -0.0000527205       -0.0000268442       -0.0000823723
  C         0.0000237114       -0.0000566580       -0.0000084492
  C         0.0001170742        0.0001429049       -0.0000606675
  C        -0.0000739434        0.0000882043       -0.0000705168
  C         0.0000483395        0.0001220742       -0.0000546276
  C        -0.0000809189        0.0000114676        0.0001075286
  C        -0.0000036450       -0.0000069943        0.0000198358
  C         0.0000786961        0.0000142168       -0.0000538427
  C         0.0001954557       -0.0000979719        0.0001162941
  C         0.0000130322       -0.0000051608        0.0000392917
  C         0.0000746287        0.0000786914       -0.0001206926
  C        -0.0000464798       -0.0000949687       -0.0000713125
  C        -0.0001978383       -0.0002288840        0.0001360611
  C         0.0000777922       -0.0000190262       -0.0000465031
  C         0.0000152804        0.0001706819       -0.0000691987
  C         0.0001919472        0.0001510827        0.0000766068
  C         0.0000192512        0.0001079461       -0.0000684058
  C        -0.0000093786       -0.0001377549       -0.0000314285
  C        -0.0001120532        0.0000150076       -0.0003053241
  C        -0.0000548797        0.0001186504        0.0001243838
  C         0.0000797046        0.0000480112       -0.0000706252
  C         0.0001184984        0.0001458709       -0.0003010620
  C         0.0000496292       -0.0000060748        0.0001609945
  C        -0.0000773786       -0.0000150084       -0.0001783074
  C         0.0001244558       -0.0000570988       -0.0001133342
  C        -0.0000349944       -0.0000451411        0.0000903166
  C        -0.0000689823        0.0000932865       -0.0000922168
  C        -0.0000015180        0.0001021502       -0.0000641909
  C        -0.0000640769        0.0000316883       -0.0001056886
  C         0.0000265161        0.0000412687        0.0000223918
  C        -0.0000721729        0.0000351609       -0.0000986265
  C        -0.0001865637       -0.0002193288        0.0000300405
  C        -0.0000122222        0.0001553791        0.0000287252
  C        -0.0000275927        0.0000317487        0.0000979480
  C         0.0000200457        0.0002159121       -0.0000548587
  C         0.0002734989        0.0001926651       -0.0001108082
  C        -0.0000083805       -0.0000301772       -0.0000344482
  C        -0.0001342047        0.0001157269        0.0000870278
  C        -0.0000718340        0.0000436537       -0.0000145254
  C         0.0000102483       -0.0000146579        0.0000085538
  C        -0.0000657510       -0.0001370913        0.0000071549
  C         0.0000625160       -0.0000341830        0.0001091000
  C        -0.0000952027       -0.0000793877       -0.0000210506
  C        -0.0000538273        0.0001438620       -0.0000384110
  C        -0.0000189211        0.0000622940        0.0001740192
  C         0.0000817613        0.0000187754        0.0000309051
  C        -0.0001014220        0.0001315860        0.0000098594
  C         0.0001206512       -0.0000614046        0.0001234104
  C         0.0000532204       -0.0001610160        0.0001062160
  C         0.0000142249       -0.0001365823       -0.0001272663
  C        -0.0002513309       -0.0000023442       -0.0000302425
  C        -0.0000051490        0.0000295673       -0.0001074855
  C        -0.0000771242        0.0000718879        0.0000194792
  C        -0.0000678939       -0.0000978193        0.0000842396
  C        -0.0000029919       -0.0000576884        0.0000586505
  C        -0.0001770223       -0.0000173793        0.0000469480
  C        -0.0001991210       -0.0001080155       -0.0000777602
  C        -0.0002252636       -0.0000388820       -0.0000823985
  C        -0.0001224842       -0.0000681640       -0.0002680458
  C         0.0000644396        0.0000239658       -0.0002540036
  O        -0.0001219465        0.0001134035       -0.0002243982
  O         0.0000300373        0.0000819870       -0.0001143414
  O        -0.0000336604        0.0001122237        0.0000024295
  O         0.0000682778       -0.0001990329       -0.0002036051
  O        -0.0001289563        0.0001079156        0.0000494670
  O         0.0001961589       -0.0002468966        0.0002130692
  O         0.0001016017       -0.0000349248       -0.0000779064
  O        -0.0000538267        0.0000657998       -0.0000383244
  O         0.0001739545       -0.0000574810       -0.0000678986
  O        -0.0001196466       -0.0000094216        0.0000369254
  O         0.0000679946        0.0000610485       -0.0000031193
  O        -0.0000903997        0.0001034092        0.0000593704
  O         0.0001332712       -0.0000307547       -0.0001679988
  O        -0.0001704104        0.0000408790        0.0000532573
  O         0.0001597962       -0.0000442283        0.0000591454
  O         0.0002137614       -0.0000685036       -0.0000963281
  O         0.0000798589        0.0000009458        0.0001482266
  O        -0.0001348603        0.0002235780       -0.0001788478
  O         0.0001510082       -0.0000333007        0.0001743733
  O        -0.0000702130        0.0000159267        0.0000879162
  O        -0.0000402326        0.0001022418        0.0000363664
  O        -0.0000073004        0.0000777289        0.0000164772
  O        -0.0000288754        0.0001979585       -0.0000516737
  O        -0.0000355198        0.0001550497        0.0001600203
  O         0.0002050282        0.0000542001        0.0000120708
  O         0.0001248981        0.0000225066       -0.0001067482
  O        -0.0001117918        0.0001297983       -0.0000338720
  O        -0.0001181452        0.0000815329        0.0000681849
  O         0.0000754004        0.0000432841       -0.0000012416
  O         0.0000251416       -0.0001713708       -0.0000410977
  O         0.0000825686        0.0000714410       -0.0000996023
  O         0.0001555927        0.0000367245        0.0000474541
  O        -0.0000415536        0.0000068293       -0.0000867413
  O        -0.0000381973       -0.0000322159        0.0002086688
  O         0.0000292628       -0.0000336666       -0.0000835153
  O         0.0000959083       -0.0000812175        0.0000468373
  O        -0.0000384838        0.0000171557       -0.0000048778
  O        -0.0001621229       -0.0000229377       -0.0000396456
  O        -0.0001470784       -0.0002227760       -0.0000985730
  O        -0.0000157895        0.0000926047       -0.0000954018
  O        -0.0001463006        0.0000617467        0.0000647223
  O         0.0000294797        0.0000279935       -0.0000204394
  O        -0.0000781468       -0.0002167260        0.0000600844
  O        -0.0000913105       -0.0001482914        0.0002192498
  H         0.0003062565        0.0003850508       -0.0002045877
  H        -0.0000498326       -0.0005283719       -0.0002736519
  H         0.0004140862       -0.0003125937        0.0002065842
  H         0.0002982917       -0.0000446066       -0.0005602587
  H        -0.0002815789       -0.0004506370       -0.0006857116
  H        -0.0003702406       -0.0000339512       -0.0000297209
  H         0.0009505084       -0.0002587907       -0.0000866819
  H        -0.0001981981       -0.0000597094        0.0003222316
  H        -0.0005622124        0.0003021926        0.0005016074
  H         0.0000492479        0.0000581612       -0.0004026542
  H        -0.0000157356        0.0003450099       -0.0001700690
  H        -0.0004898556       -0.0003388009       -0.0001854694
  H         0.0001119228        0.0000530968       -0.0001105453
  H         0.0002146634        0.0007382801        0.0000639821
  H         0.0000514153       -0.0001945428       -0.0002770496
  H        -0.0003073176        0.0002945906        0.0001352771
  H         0.0003631515        0.0000509806        0.0007457132
  H        -0.0004172962        0.0000060190        0.0003767932
  H        -0.0001566880       -0.0000500121       -0.0002814198
  H        -0.0002241213        0.0001107248        0.0002671966
  O        -0.0000057063       -0.0001258233       -0.0000617305
  H         0.0001196869        0.0002347578       -0.0005379239
  H        -0.0002320267        0.0002018538        0.0002010396
  O        -0.0000448568        0.0000061362        0.0001677825
  H        -0.0001642488       -0.0001982795       -0.0003468002
  H        -0.0004593646        0.0000875081        0.0001986204
  O        -0.0000917903       -0.0000637996        0.0000447773
  H         0.0004913974        0.0004300063        0.0002206125
  H         0.0001633197        0.0001290398        0.0002092096
  O        -0.0000815750       -0.0000749626        0.0000089538
  H         0.0004587206        0.0008451078        0.0000150520
  H         0.0005312234       -0.0000263773        0.0003254439
  O         0.0000585712        0.0000535080        0.0002419629
  H         0.0001213195       -0.0004264127        0.0001415038
  H        -0.0004907007        0.0003304731       -0.0002625186
  O        -0.0000726677       -0.0000396591        0.0000795634
  H         0.0004506605        0.0000571551        0.0004167828
  H         0.0001780600        0.0004964117        0.0006150927
  O         0.0001690643        0.0000172918        0.0000311788
  H         0.0000731086        0.0006513150       -0.0008176146
  H         0.0006014741       -0.0006044075        0.0005235478
  O        -0.0000017790        0.0000816925        0.0002617943
  H        -0.0001436703        0.0004706289        0.0001986595
  H         0.0002072247       -0.0004440009       -0.0009717593
  O        -0.0000643990        0.0001669160        0.0000253908
  H         0.0003175209        0.0005186717        0.0002328461
  H         0.0000861290        0.0000711898        0.0001057051
  O         0.0000068418        0.0000673140        0.0000139231
  H        -0.0003438697       -0.0001235816        0.0002121043
  H         0.0001355158        0.0003898535       -0.0006829387
  O        -0.0001572297       -0.0001062490        0.0001015571
  H        -0.0001524217       -0.0007437938       -0.0010261730
  H        -0.0003219220        0.0004299167       -0.0002604943
  O        -0.0000799043        0.0000425780       -0.0000065606
  H         0.0000631065        0.0008532236        0.0000910116
  H         0.0007299608        0.0000482360        0.0004830872
  O        -0.0000638151        0.0001470418       -0.0000668371
  H         0.0000614178        0.0001902746        0.0000162200
  H         0.0003559695       -0.0003496588       -0.0000587014
  O         0.0000189148        0.0000533954       -0.0000230805
  H         0.0000884940       -0.0000161137       -0.0003131243
  H        -0.0001890297        0.0004176513       -0.0001780348
  O         0.0000622736       -0.0001040481        0.0001009625
  H        -0.0003124129        0.0007065685       -0.0004269301
  H        -0.0003360793        0.0002820756       -0.0001603438
  O         0.0001795806       -0.0001268977       -0.0001760896
  H        -0.0000918217       -0.0003286229        0.0005391168
  H         0.0001364017        0.0003469367        0.0000755644
  O        -0.0001145435        0.0000346851        0.0000308282
  H        -0.0002965513        0.0001856186       -0.0003470775
  H        -0.0002932551       -0.0001024428        0.0002923444
  O        -0.0000239497       -0.0001061395        0.0000045357
  H         0.0003021088       -0.0008100075       -0.0001961233
  H         0.0002104919        0.0003053164       -0.0002149987
  O         0.0000321110        0.0000242610        0.0000879644
  H         0.0002090624        0.0003418550        0.0003233162
  H         0.0002350610        0.0000450560        0.0003045582
  O         0.0001393429        0.0001822211        0.0002261696
  H        -0.0003134355       -0.0000958376        0.0000035181
  H         0.0000137107       -0.0004797253        0.0001042277
  O         0.0001093487       -0.0000073648        0.0000958420
  H         0.0002955522       -0.0003897875       -0.0004810964
  H        -0.0006551291        0.0000537102        0.0001425641
  O        -0.0000193721       -0.0000714790       -0.0001073865
  H         0.0003002591       -0.0009223684       -0.0002327977
  H         0.0003734821        0.0004644159       -0.0004027209
  O        -0.0001052828        0.0000283513        0.0000658346
  H        -0.0004773014        0.0001024320       -0.0003302005
  H        -0.0004233231        0.0006980208       -0.0000581241
  O         0.0000761221       -0.0001105566        0.0000362986
  H        -0.0007109104       -0.0001599626        0.0007022616
  H         0.0000404125        0.0001920870       -0.0003245707
  O        -0.0000074956       -0.0001801799        0.0000399053
  H         0.0003747620       -0.0000550724        0.0001860284
  H         0.0005068683       -0.0002535734       -0.0004062948
  O         0.0000291588        0.0001231962       -0.0000119763
  H         0.0001661189       -0.0002034911       -0.0003345689
  H        -0.0006379103        0.0002255180       -0.0004935360
  O        -0.0000075503        0.0000277948        0.0000353869
  H         0.0000441115        0.0000192134       -0.0001945505
  H        -0.0003445631        0.0006566254       -0.0005594469
  O        -0.0001326417        0.0001580588       -0.0000912880
  H        -0.0005105607        0.0003722205       -0.0007761062
  H         0.0001612134       -0.0001626709       -0.0003176132
  O        -0.0002543597        0.0000251632       -0.0000658470
  H         0.0007742536        0.0000133611       -0.0003103702
  H        -0.0008580354        0.0000669285        0.0001211761
  O         0.0001224662       -0.0000214098        0.0000868463
  H         0.0001798594        0.0001430859        0.0001050585
  H         0.0007948787        0.0004325437        0.0001692715
  O        -0.0000501938        0.0000736329       -0.0000928208
  H        -0.0000804764        0.0001338760       -0.0000636737
  H        -0.0001323739        0.0003641716        0.0002754296
  O        -0.0001372544        0.0000344978       -0.0000309325
  H         0.0002270605       -0.0001262873        0.0001385368
  H         0.0002365519       -0.0000972449       -0.0007796464
  O         0.0001057253       -0.0000406170        0.0001640048
  H         0.0000077648       -0.0004619825       -0.0003104400
  H         0.0004124046       -0.0001670134       -0.0002477293
  O        -0.0000243396       -0.0001014008       -0.0000935979
  H         0.0007640315        0.0001754020        0.0001510160
  H         0.0002677224       -0.0002302414       -0.0003165842
  O        -0.0000909472       -0.0000399563        0.0000206834
  H        -0.0002070454       -0.0004140117        0.0005893601
  H         0.0005497332        0.0002161229       -0.0005338938
  O        -0.0000379547       -0.0000440751        0.0001086775
  H         0.0004465304       -0.0000050853       -0.0002026650
  H        -0.0001801136        0.0005961620       -0.0001972619
  O        -0.0000881663        0.0001433377        0.0000420920
  H         0.0005451089       -0.0006475064        0.0000247194
  H        -0.0004093170       -0.0003952998       -0.0002287227
  O         0.0000761389        0.0001219329        0.0000502271
  H         0.0004214283        0.0000005346        0.0004697243
  H        -0.0002905096       -0.0001458016       -0.0003114437
  O         0.0000196954       -0.0001836586       -0.0001037073
  H        -0.0000657364       -0.0000034373       -0.0000730667
  H        -0.0001322487       -0.0001425237        0.0002925785
  O         0.0000095712       -0.0001227273       -0.0001200663
  H         0.0004247371        0.0005637053       -0.0005103810
  H        -0.0002008839        0.0000857272        0.0003755150
  O         0.0000642296       -0.0001474805       -0.0000936578
  H        -0.0001101627        0.0002865621        0.0004821553
  H        -0.0008321988       -0.0003410761       -0.0001623225
  O         0.0001397225       -0.0000913439       -0.0001202951
  H        -0.0001976566       -0.0002213049       -0.0000990188
  H        -0.0004591386        0.0000575506        0.0004618139
  O         0.0000427977       -0.0000163247       -0.0000028776
  H         0.0003207371       -0.0003436940       -0.0002166636
  H        -0.0002290517        0.0002695956        0.0000020201
  O        -0.0000391442        0.0000877095       -0.0000388375
  H        -0.0002132524       -0.0003483536       -0.0008125513
  H         0.0002426903       -0.0001555391        0.0000981941
  O        -0.0001639911       -0.0000810886       -0.0000865707
  H        -0.0003143143       -0.0002219033       -0.0006370995
  H         0.0001636210       -0.0002524363       -0.0000889628
  O        -0.0000439121        0.0000723122       -0.0000383577
  H        -0.0002099190       -0.0004120345        0.0009845955
  H         0.0003648948       -0.0004164947       -0.0000275897
  O         0.0001629811        0.0000638497       -0.0000332190
  H        -0.0000876078       -0.0001845304        0.0005176886
  H         0.0006207181       -0.0001206138        0.0002148068
  O        -0.0000059491        0.0000263144       -0.0001286738
  H         0.0000881397        0.0002218490        0.0002315091
  H        -0.0002014931       -0.0012858355       -0.0002391963
  O        -0.0001734713        0.0000742019        0.0000445587
  H        -0.0001582351       -0.0001140148        0.0006133260
  H         0.0006491607        0.0000375169        0.0001878472
  O        -0.0000477602        0.0000214494        0.0001031728
  H         0.0001105386        0.0004499809       -0.0004038137
  H        -0.0003567308        0.0002101634       -0.0002514963
  O         0.0000491970        0.0002457869       -0.0000449796
  H        -0.0000946658       -0.0001708260        0.0001837487
  H        -0.0002889782       -0.0003108960        0.0000998834
  O        -0.0000141150       -0.0000795805       -0.0001351675
  H         0.0004155068       -0.0000234787        0.0005700440
  H         0.0001371491       -0.0002676809       -0.0000208924
  O         0.0001514800        0.0001254064        0.0000131273
  H        -0.0004524622        0.0001654431       -0.0008173824
  H         0.0000072942        0.0000659651       -0.0002762860
  O        -0.0001406184        0.0000271888       -0.0000088407
  H         0.0007235681       -0.0004001348       -0.0004552045
  H        -0.0000395177       -0.0001826180       -0.0004740779
  O         0.0000176801        0.0000182045        0.0001116177
  H         0.0006772659       -0.0002417965        0.0002004354
  H        -0.0002658348       -0.0004975154        0.0002457619
  O         0.0001108822       -0.0000494171        0.0000113867
  H        -0.0000256816       -0.0000836326        0.0001182496
  H         0.0005480772        0.0001775136        0.0003524901
  O        -0.0000109415        0.0000226599       -0.0000308999
  H        -0.0003148705       -0.0005009200        0.0004734162
  H         0.0000963102       -0.0003318604        0.0006818083
  O         0.0000236719        0.0000065597       -0.0000896855
  H         0.0000826358        0.0002959681       -0.0007287442
  H         0.0002125906       -0.0001396416        0.0000411987
  O         0.0001199418       -0.0000139324        0.0002863504
  H         0.0006956039       -0.0008602051       -0.0001202889
  H        -0.0000302397       -0.0007121338        0.0003872215
  O         0.0001298375        0.0000265326        0.0000412619
  H        -0.0007289670       -0.0000844118        0.0006325196
  H         0.0002475724        0.0001462046       -0.0000344981
  O         0.0000922012       -0.0001407734       -0.0000804064
  H         0.0000657550        0.0002468212       -0.0002060246
  H         0.0003186002        0.0000303771        0.0003259367
  O         0.0000523299        0.0000156062        0.0001131605
  H         0.0002205447        0.0003232126        0.0002815917
  H         0.0004961422        0.0006907980       -0.0003841228
  O         0.0000573187        0.0000767044        0.0000107718
  H         0.0000726673        0.0004753097       -0.0003871165
  H        -0.0004896585        0.0006366963        0.0003100250
  O        -0.0000628450        0.0000227507       -0.0001616840
  H         0.0003339678       -0.0006241870       -0.0001137134
  H         0.0002115550       -0.0002091005        0.0002559107
  O        -0.0000415474        0.0000472362        0.0000856130
  H         0.0003871477        0.0001132937       -0.0006625380
  H         0.0003579715        0.0000406997       -0.0004631558
  O        -0.0000786084        0.0000901324       -0.0000879132
  H         0.0002172380        0.0006246668       -0.0002752054
  H         0.0003833847        0.0002664135        0.0002613608
  O        -0.0001434426       -0.0000819027       -0.0000542398
  H         0.0002151444        0.0006054851        0.0005079431
  H        -0.0001006935       -0.0001879972        0.0000710038
  O         0.0001184975        0.0001785363        0.0001111032
  H         0.0004522479       -0.0000698035        0.0001233477
  H        -0.0009130701        0.0007925093        0.0000368804
  O         0.0000464309       -0.0000740251        0.0000059705
  H        -0.0000047926       -0.0001328411        0.0000103158
  H        -0.0006496364       -0.0004938643        0.0008251640
  O         0.0001113489       -0.0000599464       -0.0001312453
  H         0.0000160104       -0.0000085036        0.0001654971
  H         0.0006088981        0.0000587563        0.0001337287
  O        -0.0000161437       -0.0000064128        0.0000730525
  H         0.0007616649       -0.0003796417       -0.0000396978
  H        -0.0003839462        0.0008969714       -0.0007840682
  O        -0.0001086489        0.0000677322        0.0001069297
  H         0.0004899621       -0.0002825841        0.0005244159
  H         0.0007789077        0.0003814196        0.0005968787